ch2o b3lyp/cc-pvdz (opt/freq)                                           
Freq      RB3LYP                                                      CC-pVDZ             
Number of atoms                            I                4
Info1-9                                    I   N=           9
          13          13        1002           0           0         100
           6          18        -502
Full Title                                 C   N=           3
ch2o b3lyp/cc-pvdz (opt/freq)       
Route                                      C   N=           4
#p b3lyp/cc-pvdz opt=Tight freq Symmetry=None   
Charge                                     I                0
Multiplicity                               I                1
Number of electrons                        I               16
Number of alpha electrons                  I                8
Number of beta electrons                   I                8
Number of basis functions                  I               38
Number of independent functions            I               38
Number of point charges in /Mol/           I                0
Number of translation vectors              I                0
Atomic numbers                             I   N=           4
           8           6           1           1
Nuclear charges                            R   N=           4
  8.00000000E+00  6.00000000E+00  1.00000000E+00  1.00000000E+00
Current cartesian coordinates              R   N=          12
  1.14083680E+00 -4.91967682E-04 -1.23437584E-04 -1.13435014E+00  8.64849597E-05
 -9.59237660E-06 -2.27091334E+00  4.65150475E-01 -1.72441985E+00 -2.27091603E+00
 -4.64367047E-01  1.72455288E+00
Number of symbols in /Mol/                 I                0
Force Field                                I                0
Atom Types                                 C   N=           4
                                                
Int Atom Types                             I   N=           4
           0           0           0           0
MM charges                                 R   N=           4
  0.00000000E+00  0.00000000E+00  0.00000000E+00  0.00000000E+00
Integer atomic weights                     I   N=           4
          16          12           1           1
Real atomic weights                        R   N=           4
  1.59949146E+01  1.20000000E+01  1.00782504E+00  1.00782504E+00
Atom fragment info                         I   N=           4
           0           0           0           0
Atom residue num                           I   N=           4
           0           0           0           0
Nuclear spins                              I   N=           4
           0           0           1           1
Nuclear ZEff                               R   N=           4
 -5.60000000E+00 -3.60000000E+00 -1.00000000E+00 -1.00000000E+00
Nuclear ZNuc                               R   N=           4
  8.00000000E+00  6.00000000E+00  1.00000000E+00  1.00000000E+00
Nuclear QMom                               R   N=           4
  0.00000000E+00  0.00000000E+00  0.00000000E+00  0.00000000E+00
Nuclear GFac                               R   N=           4
  0.00000000E+00  0.00000000E+00  2.79284600E+00  2.79284600E+00
MicOpt                                     I   N=           4
          -1          -1          -1          -1
Number of residues                         I                0
Number of secondary structures             I                0
Redundant internal dimensions              I   N=           4
           7           3           3           1
Redundant internal coordinate indices      I   N=          28
           1           2           0           0           2           3
           0           0           2           4           0           0
           1           2           3           0           1           2
           4           0           3           2           4           0
           1           2           4           3
Redundant internal coordinates             R   N=           7
  2.27518702E+00  2.11699106E+00  2.11698248E+00  2.13754486E+00  2.13751325E+00
  2.00812720E+00  3.14157106E+00
ZRed-IntVec                                I   N=           7
           0           0           0           0           0           0
           0
ZRed-FPVec                                 R   N=           7
  0.00000000E+00  0.00000000E+00  0.00000000E+00  0.00000000E+00  0.00000000E+00
  0.00000000E+00  0.00000000E+00
ZRed-Constraint1                           R   N=           7
  2.27518702E+00  2.11699106E+00  2.11698248E+00  2.13754486E+00  2.13751325E+00
  2.00812720E+00  3.14157106E+00
ZRed-Constraint2                           R   N=           7
  2.31415861E+00  2.08203408E+00  2.08195089E+00  2.13343129E+00  2.13345649E+00
  2.01629750E+00  3.14139842E+00
Number of contracted shells                I               18
Number of primitive shells                 I               50
Pure/Cartesian d shells                    I                0
Pure/Cartesian f shells                    I                0
Highest angular momentum                   I                2
Largest degree of contraction              I                7
Shell types                                I   N=          18
           0           0           0           1           1          -2
           0           0           0           1           1          -2
           0           0           1           0           0           1
Number of primitives per shell             I   N=          18
           7           7           1           3           1           1
           7           7           1           3           1           1
           3           1           1           3           1           1
Shell to atom map                          I   N=          18
           1           1           1           1           1           1
           2           2           2           2           2           2
           3           3           3           4           4           4
Primitive exponents                        R   N=          50
  1.17200000E+04  1.75900000E+03  4.00800000E+02  1.13700000E+02  3.70300000E+01
  1.32700000E+01  5.02500000E+00  1.17200000E+04  4.00800000E+02  1.13700000E+02
  3.70300000E+01  1.32700000E+01  5.02500000E+00  1.01300000E+00  3.02300000E-01
  1.77000000E+01  3.85400000E+00  1.04600000E+00  2.75300000E-01  1.18500000E+00
  6.66500000E+03  1.00000000E+03  2.28000000E+02  6.47100000E+01  2.10600000E+01
  7.49500000E+00  2.79700000E+00  6.66500000E+03  2.28000000E+02  6.47100000E+01
  2.10600000E+01  7.49500000E+00  2.79700000E+00  5.21500000E-01  1.59600000E-01
  9.43900000E+00  2.00200000E+00  5.45600000E-01  1.51700000E-01  5.50000000E-01
  1.30100000E+01  1.96200000E+00  4.44600000E-01  1.22000000E-01  7.27000000E-01
  1.30100000E+01  1.96200000E+00  4.44600000E-01  1.22000000E-01  7.27000000E-01
Contraction coefficients                   R   N=          50
  7.11864434E-04  5.48520199E-03  2.79099296E-02  1.05133208E-01  2.84002490E-01
  4.51673946E-01  2.73208126E-01  7.69030046E-06  3.13484579E-04 -2.96614853E-03
 -1.08753543E-02 -1.20753817E-01 -1.06275264E-01  1.09597548E+00  1.00000000E+00
  6.26791663E-02  3.33536566E-01  7.41239642E-01  1.00000000E+00  1.00000000E+00
  6.93516317E-04  5.34150243E-03  2.71366714E-02  1.01992385E-01  2.75508636E-01
  4.51086433E-01  2.87565745E-01  7.73354740E-06  2.78072137E-04 -2.57875654E-03
 -8.95087684E-03 -1.06058855E-01 -1.31517686E-01  1.09948660E+00  1.00000000E+00
  5.69792516E-02  3.13207212E-01  7.60376742E-01  1.00000000E+00  1.00000000E+00
  3.34987264E-02  2.34800801E-01  8.13682958E-01  1.00000000E+00  1.00000000E+00
  3.34987264E-02  2.34800801E-01  8.13682958E-01  1.00000000E+00  1.00000000E+00
Coordinates of each shell                  R   N=          54
  1.14083680E+00 -4.91967682E-04 -1.23437584E-04  1.14083680E+00 -4.91967682E-04
 -1.23437584E-04  1.14083680E+00 -4.91967682E-04 -1.23437584E-04  1.14083680E+00
 -4.91967682E-04 -1.23437584E-04  1.14083680E+00 -4.91967682E-04 -1.23437584E-04
  1.14083680E+00 -4.91967682E-04 -1.23437584E-04 -1.13435014E+00  8.64849597E-05
 -9.59237660E-06 -1.13435014E+00  8.64849597E-05 -9.59237660E-06 -1.13435014E+00
  8.64849597E-05 -9.59237660E-06 -1.13435014E+00  8.64849597E-05 -9.59237660E-06
 -1.13435014E+00  8.64849597E-05 -9.59237660E-06 -1.13435014E+00  8.64849597E-05
 -9.59237660E-06 -2.27091334E+00  4.65150475E-01 -1.72441985E+00 -2.27091334E+00
  4.65150475E-01 -1.72441985E+00 -2.27091334E+00  4.65150475E-01 -1.72441985E+00
 -2.27091603E+00 -4.64367047E-01  1.72455288E+00 -2.27091603E+00 -4.64367047E-01
  1.72455288E+00 -2.27091603E+00 -4.64367047E-01  1.72455288E+00
Num ILSW                                   I              100
ILSW                                       I   N=         100
           0           0           0           0           2           0
           0           0           0           0         402          -1
           5           0           0           0           2           0
           0           0           0           0           1           0
           1           1           0           0           0           0
           0           0      100000           0          -1           0
           0           0           0           0           0           0
           0           0           0           1           0           0
           0 -2000000000           1           0           0           0
           0           0           4          52           0           0
           0           0           5           0           0           0
           0           0           0           4           0           1
           0           0           0           0           0           0
           0           0           0           0           0           0
           0           0           0           0           0           0
           0           0           0           0           0           0
           0           0           0           0
Num RLSW                                   I               52
RLSW                                       R   N=          52
  8.00000000E-01  7.20000000E-01  1.00000000E+00  8.10000000E-01  2.00000000E-01
  0.00000000E+00  0.00000000E+00  1.00000000E+00  0.00000000E+00  0.00000000E+00
  0.00000000E+00  0.00000000E+00  1.00000000E+00  0.00000000E+00  0.00000000E+00
  0.00000000E+00  0.00000000E+00  1.00000000E+00  0.00000000E+00  0.00000000E+00
  0.00000000E+00  0.00000000E+00  1.00000000E+00  0.00000000E+00  0.00000000E+00
  0.00000000E+00  0.00000000E+00  1.00000000E+00  0.00000000E+00  0.00000000E+00
  0.00000000E+00  0.00000000E+00  1.00000000E+00  0.00000000E+00  0.00000000E+00
  0.00000000E+00  0.00000000E+00  0.00000000E+00  1.00000000E+00  1.00000000E+00
  0.00000000E+00  1.00000000E+00  0.00000000E+00  0.00000000E+00  0.00000000E+00
  0.00000000E+00  0.00000000E+00  0.00000000E+00  0.00000000E+00  0.00000000E+00
  0.00000000E+00  0.00000000E+00
MxBond                                     I                3
NBond                                      I   N=           4
           1           3           1           1
IBond                                      I   N=          12
           2           0           0           1           3           4
           2           0           0           2           0           0
RBond                                      R   N=          12
  2.00000000E+00  0.00000000E+00  0.00000000E+00  2.00000000E+00  1.00000000E+00
  1.00000000E+00  1.00000000E+00  0.00000000E+00  0.00000000E+00  1.00000000E+00
  0.00000000E+00  0.00000000E+00
Virial Ratio                               R      2.006363443439464E+00
SCF Energy                                 R     -1.145076401175222E+02
Total Energy                               R     -1.145076401175222E+02
RMS Force                                  R      3.304164317818788E-06
RMS Density                                R      8.495650162728114E-10
NImag                                      I                0
Job Status                                 I                1
Nuclear derivative order                   I                2
External E-field                           R   N=          35
  0.00000000E+00  0.00000000E+00  0.00000000E+00  0.00000000E+00  0.00000000E+00
  0.00000000E+00  0.00000000E+00  0.00000000E+00  0.00000000E+00  0.00000000E+00
  0.00000000E+00  0.00000000E+00  0.00000000E+00  0.00000000E+00  0.00000000E+00
  0.00000000E+00  0.00000000E+00  0.00000000E+00  0.00000000E+00  0.00000000E+00
  0.00000000E+00  0.00000000E+00  0.00000000E+00  0.00000000E+00  0.00000000E+00
  0.00000000E+00  0.00000000E+00  0.00000000E+00  0.00000000E+00  0.00000000E+00
  0.00000000E+00  0.00000000E+00  0.00000000E+00  0.00000000E+00  0.00000000E+00
IOpCl                                      I                0
IROHF                                      I                0
Alpha Orbital Energies                     R   N=          38
 -1.91601941E+01 -1.02898045E+01 -1.06356282E+00 -6.32921272E-01 -4.91868468E-01
 -4.50307199E-01 -4.00786250E-01 -2.67068259E-01 -4.41055656E-02  6.52291684E-02
  1.33378131E-01  2.08206318E-01  4.49787691E-01  4.62745277E-01  5.36564346E-01
  5.87433366E-01  6.32009121E-01  7.59206127E-01  8.71568356E-01  9.26034185E-01
  9.78890956E-01  1.05353829E+00  1.16478040E+00  1.40625115E+00  1.43363056E+00
  1.53483607E+00  1.65308478E+00  1.67150653E+00  1.68765729E+00  1.72401678E+00
  2.23582597E+00  2.30545539E+00  2.39145209E+00  2.67091285E+00  2.78896415E+00
  3.03383884E+00  3.32440738E+00  3.42073965E+00
Alpha MO coefficients                      R   N=        1444
  9.96555412E-01  2.30437834E-02 -1.25394514E-02 -1.97314960E-03  5.01206730E-07
  9.68941577E-08  3.16702145E-03 -8.00598593E-07 -1.81376302E-07 -7.43913311E-05
 -6.25328289E-10  2.16354372E-05  5.44022434E-05 -2.68664691E-08  1.90527370E-04
  4.02083777E-04  5.13006541E-03 -1.88779398E-04  5.05025297E-08  2.05677330E-08
  3.21218118E-03 -8.36420422E-07 -6.58907271E-08  1.03481614E-03  3.96430971E-08
 -3.18638902E-04 -6.95920115E-04  3.38018957E-07 -6.39572999E-04  4.34698292E-05
 -7.25633572E-04 -1.37755730E-05  5.18433240E-05 -6.39656891E-04  4.33580075E-05
 -7.25626367E-04  1.41373953E-05 -5.17276946E-05 -9.79534438E-05  6.73699674E-04
 -5.11514421E-03  7.52663736E-04 -1.89582381E-07 -4.31321990E-08  3.55956132E-03
 -8.85522839E-07 -1.99333169E-07  3.39398164E-04  1.08271882E-07  7.92047299E-05
 -8.60397920E-04  4.31538073E-07  9.96298237E-01  2.88742227E-02 -7.43043180E-03
  7.81844238E-04 -1.78671357E-07 -1.62185309E-08  2.78644661E-03 -7.32992410E-07
 -1.35477055E-07  3.90246076E-04 -2.15937830E-07 -7.89972892E-04  2.04236666E-03
 -1.11923253E-06 -2.15875728E-03  2.34583207E-03 -1.19780889E-03  4.54536632E-04
 -1.68526539E-03 -2.15874090E-03  2.34581101E-03 -1.19781421E-03 -4.53875983E-04
  1.68539645E-03 -1.93322389E-01  4.07980966E-01  3.54753116E-01 -1.63714203E-01
  4.16306267E-05  8.20778625E-06 -3.21144340E-02  8.14546790E-06  1.79723001E-06
 -9.18142203E-03 -1.07299511E-06  1.20270755E-03  1.17641827E-02 -5.90550027E-06
 -1.11154135E-01  2.19579382E-01  9.33119151E-02  1.97630810E-01 -5.03149393E-05
 -9.78163195E-06  1.87231955E-02 -4.70919599E-06 -1.49015130E-06 -2.46718728E-02
 -2.56045288E-06  4.15245123E-03  2.84443687E-02 -1.41733589E-05  3.79785919E-02
 -1.54190260E-03  9.47464765E-03 -1.89526021E-03  7.02257199E-03  3.79802669E-02
 -1.54151840E-03  9.47462189E-03  1.89039024E-03 -7.02407141E-03  8.49823838E-02
 -1.92368108E-01 -2.15550045E-01 -1.07901881E-01  2.78406273E-05  6.82303436E-06
 -7.92793072E-02  2.03508174E-05  4.84401503E-06 -2.46820808E-03 -9.32211215E-07
 -7.96709801E-04  7.01653472E-03 -3.64211465E-06 -1.55761963E-01  3.42912266E-01
  2.34357540E-01 -2.05732975E-01  5.37111084E-05  1.31213066E-05 -8.72798141E-02
  2.25934127E-05  4.10904218E-06  7.84523992E-03  1.20366529E-06 -4.40170184E-04
 -1.20737565E-02  6.13579233E-06  2.35382904E-01  3.78314337E-02  8.95405010E-03
 -6.07874273E-03  2.25454989E-02  2.35382773E-01  3.78320663E-02  8.95405747E-03
  6.07383904E-03 -2.25466171E-02  9.18021675E-07 -2.00674799E-06 -2.72250390E-06
 -9.29372326E-06 -7.57476626E-02  2.81061508E-01 -5.24376950E-06 -4.24265363E-02
  1.57423565E-01  1.53996171E-06 -1.85260620E-02  4.45673465E-06  1.78652441E-06
  4.99287739E-03  5.49537396E-07 -1.07098187E-06 -3.23323833E-06 -2.33059360E-06
 -1.13383822E-01  4.20710379E-01 -2.21615363E-06 -3.56526763E-02  1.32289153E-01
 -2.90330933E-07  9.94853263E-03 -2.38572222E-06 -1.02950478E-06 -2.68118946E-03
 -2.54704726E-01 -8.52135714E-02 -1.07018096E-02  2.47593336E-03 -9.17536769E-03
  2.54703605E-01  8.52122920E-02  1.07014698E-02  2.47003299E-03 -9.17663464E-03
 -8.04505168E-02  1.67111454E-01  3.18791863E-01  5.13874385E-01 -1.28896370E-04
 -2.00023242E-05  2.85260695E-01 -7.13731164E-05 -1.12302866E-05  1.08093771E-02
  1.78966230E-06  5.57561206E-04 -2.06409536E-02  1.04077207E-05  2.41698348E-02
 -8.05567640E-02  2.49426976E-02 -3.70137671E-01  9.63737351E-05  2.45659895E-05
 -2.39924962E-02  6.72811271E-06  4.10587146E-06  1.21838622E-02  1.23602433E-06
 -3.33269210E-03 -9.63529117E-03  4.77850533E-06  1.08690215E-01  6.71734309E-02
 -6.18525392E-03 -2.29939052E-03  8.53815619E-03  1.08690582E-01  6.71728616E-02
 -6.18501320E-03  2.30259007E-03 -8.53748388E-03  3.25395568E-07 -5.70765095E-07
 -1.65646048E-06  1.25947667E-04  4.84978880E-01  1.30704540E-01  7.68182064E-05
  2.95059545E-01  7.95201945E-02  4.83899818E-07 -6.60176470E-03  2.88632782E-06
 -1.26361341E-05 -2.44958291E-02  6.26885318E-07 -1.30861460E-06 -2.72334387E-06
  1.00200917E-04  3.58447552E-01  9.66036349E-02  5.59688656E-05  2.04868921E-01
  5.52133857E-02 -9.92089685E-07  1.08089041E-02 -4.66573001E-06  2.10285889E-05
  4.01064401E-02 -3.47770545E-07 -5.54989461E-07  2.71905161E-06  9.73426902E-03
  2.62348720E-03 -3.58441714E-07 -6.17206384E-07  2.71075109E-06  9.73419320E-03
  2.62337778E-03 -1.47528765E-07  7.70137105E-07 -1.42302592E-06 -1.40315426E-05
 -1.49369877E-01  5.54236555E-01 -9.07872409E-06 -1.05529051E-01  3.91565151E-01
  8.27773403E-07 -1.10497470E-02  2.67291636E-06  1.04018547E-06  2.97796966E-03
  3.61342490E-07 -3.72999731E-07 -7.45381069E-07  4.22699050E-06  3.81485373E-02
 -1.41550030E-01  2.02968780E-06 -1.05877893E-02  3.92862015E-02 -5.85419625E-06
  6.05328106E-02 -1.47287567E-05 -4.61653502E-06 -1.63139277E-02  2.48638221E-01
  2.29675014E-01  4.97711848E-03 -4.53396503E-04  1.67698947E-03 -2.48640679E-01
 -2.29674671E-01 -4.97713927E-03 -4.50900154E-04  1.67838174E-03 -1.68344823E-07
  5.64272459E-07  4.66369150E-07 -1.15068533E-04 -4.23452920E-01 -1.14122992E-01
 -1.19384563E-04 -4.39537952E-01 -1.18457972E-01  1.06282573E-07 -1.26175878E-03
  5.51868327E-07 -2.37319274E-06 -4.68174711E-03  1.70001189E-06 -3.00677939E-06
 -1.60982015E-05  1.33842126E-04  4.85337242E-01  1.30801152E-01  1.50662203E-04
  5.44349550E-01  1.46705388E-01  9.48102605E-07 -9.71918196E-03  4.29098142E-06
 -1.87727041E-05 -3.60629040E-02  4.05730986E-06  6.97070709E-06  6.92780824E-06
  2.53736758E-02  6.83854003E-03  4.10979277E-06  6.63953700E-06  6.91352437E-06
  2.53734057E-02  6.83810319E-03  8.21421461E-04 -4.52957477E-03  4.96497024E-03
  7.80838564E-02 -2.41480054E-05 -1.38568203E-06  1.05191345E-01 -3.30924138E-05
 -2.23171423E-06 -2.83146149E-03  2.79934004E-07  1.67778052E-03 -8.68994335E-04
  3.48453627E-07 -1.14676875E-01  1.86822563E-01  1.75360667E+00 -2.25723067E-01
  6.47861641E-05  9.90475755E-06 -5.01454440E-01  1.42904376E-04  2.71033897E-05
  2.96065436E-05 -2.27021315E-07 -9.61565459E-04  3.25745035E-03 -2.19638853E-06
 -1.04268857E-01 -1.24466601E+00 -2.03424083E-03 -7.83114516E-04  2.90873021E-03
 -1.04268372E-01 -1.24464010E+00 -2.03439932E-03  7.84601324E-04 -2.90824783E-03
  2.36949422E-06 -4.37984679E-06 -2.45602929E-05  2.15018699E-06 -3.71468386E-02
  1.37833057E-01  4.04764506E-06 -7.74891306E-02  2.87523264E-01 -4.34431529E-07
  1.07068134E-02 -2.58143360E-06 -1.35765065E-06 -2.88555027E-03 -3.65164149E-07
  1.13528086E-06 -6.14239393E-06  9.98439886E-06  1.20231871E-01 -4.46119607E-01
  4.13740296E-05  3.13303683E-01 -1.16251291E+00 -7.91569675E-07  6.54107725E-03
 -1.25559977E-06 -1.50532392E-06 -1.76286510E-03  5.48093400E-03 -1.65616443E+00
  3.59282420E-03 -5.54465240E-04  2.05281174E-03 -5.48453999E-03  1.65620856E+00
 -3.59050538E-03 -5.52286514E-04  2.05385485E-03  1.02756507E-01 -1.11905966E-01
 -1.59651846E+00  1.70792296E-01 -4.36792816E-05 -8.61814677E-06  5.81541317E-01
 -1.46859780E-04 -3.21171499E-05  1.37170877E-02  1.79766282E-06 -7.52758462E-04
 -2.11684588E-02  1.07983427E-05 -4.76960018E-02  3.19133430E-02  1.14297154E+00
  9.46098956E-02 -2.64944045E-05  5.27338418E-06  1.65055413E+00 -4.27086434E-04
 -6.07128425E-05 -9.67202307E-04  3.34633404E-07  1.22971832E-03 -2.55622763E-03
  1.59228478E-06 -2.56398328E-02  1.87923303E-01  2.64225358E-02  4.05886192E-03
 -1.50857953E-02 -2.56224970E-02  1.87804948E-01  2.64208724E-02 -4.07130362E-03
  1.50811282E-02 -6.07178543E-08  4.60013374E-07  3.78358195E-07 -4.40083734E-06
 -1.70649256E-02 -4.59915587E-03 -2.94707530E-05 -1.09511826E-01 -2.95140938E-02
 -7.93121850E-07  8.49190640E-03 -3.72112839E-06  1.64681119E-05  3.15091772E-02
 -5.05992399E-07  4.77890168E-06  3.03973553E-06 -2.57629207E-04 -9.51666753E-01
 -2.56479842E-01  2.89972324E-04  1.08664132E+00  2.92856664E-01  1.00522005E-06
 -8.90719487E-03  4.02261784E-06 -1.71800110E-05 -3.30498813E-02 -1.08152421E-06
 -4.53845945E-06 -6.28903339E-06 -2.04356499E-02 -5.50827061E-03 -1.14108825E-06
 -5.26324442E-06 -6.36043989E-06 -2.04373639E-02 -5.50715254E-03 -1.49180012E-02
  9.55560566E-02 -5.55794150E-02 -5.35673807E-02  1.86228606E-05 -3.65318096E-06
 -4.54189234E-02  1.41276001E-05  4.22482478E-06  5.45767676E-03 -9.96835646E-07
 -4.11301979E-03  4.69989599E-03 -2.35679974E-06  6.13710459E-02  3.08719243E-02
 -3.08204061E-01  5.38385350E-02 -1.90079171E-05  3.56756194E-06  3.15719235E-01
 -8.27311430E-05 -3.40817528E-05  1.86036173E-01 -1.39962115E-05 -1.26408959E-01
  1.12748128E-01 -6.77981857E-05  8.28563713E-01 -4.41967572E-01 -5.69450732E-03
  2.90924611E-02 -1.07943828E-01  8.28533886E-01 -4.41913612E-01 -5.69157837E-03
 -2.90900382E-02  1.07942310E-01  1.89415688E-06 -2.82056512E-06 -5.40270740E-05
 -5.37909738E-06  9.38354860E-02 -3.48176589E-01  2.31230027E-05  6.73619714E-02
 -2.49946182E-01  1.92985780E-06 -1.21852820E-02  2.93649820E-06 -1.56307391E-06
  3.28399848E-03 -4.44775509E-07 -9.49372163E-06  4.39367517E-05 -1.54622963E-05
  3.62380645E-03 -1.34456946E-02  4.08614128E-05 -3.39180546E-01  1.25852814E+00
 -3.05081331E-05  1.62858753E-01 -3.96299116E-05 -1.00208130E-05 -4.38913651E-02
  7.80263771E-01  5.49319525E-06 -9.38984633E-02 -2.96147408E-04  1.20097193E-03
 -7.80286787E-01  1.53377292E-05  9.38990356E-02 -3.45966682E-04  1.18150347E-03
  1.53881487E-06 -4.31015457E-06  6.80761321E-06  1.71463394E-05  1.76652049E-02
 -6.55466312E-02  7.02958584E-06  3.01145050E-02 -1.11739788E-01 -3.84875272E-06
  2.18760478E-02 -5.37523464E-06  1.21294563E-06 -5.89572995E-03 -1.54950764E-06
  1.98657813E-05  1.04816095E-05  4.51146831E-05  2.30311676E-01 -8.54569941E-01
 -4.55904246E-05 -5.74279050E-01  2.13085995E+00  3.81776881E-05 -2.48054052E-01
  5.78111217E-05  1.12898838E-05  6.68519977E-02 -1.81007113E-01  1.68741234E+00
  9.92451405E-02 -3.90677217E-02  1.44856441E-01  1.81023412E-01 -1.68745124E+00
 -9.92446681E-02 -3.90176610E-02  1.44879113E-01 -4.24865258E-02  1.79876905E-01
 -3.55220147E-01 -4.28410347E-01  1.08014249E-04  2.72223109E-05 -2.58344853E-01
  6.54274928E-05  1.43990074E-05  4.59447772E-02  8.84660612E-06 -3.12798354E-04
 -7.85023483E-02  3.96295970E-05  4.93768572E-02 -2.24904087E-01 -6.63275948E-01
 -9.87342488E-01  2.59695120E-04  2.23037765E-05  1.13078426E+00 -3.06432648E-04
 -1.03842994E-05 -1.74541405E-01 -3.88969798E-05  1.71305141E-02  2.43368720E-01
 -1.17867307E-04  2.08092986E-02  4.72170979E-01 -1.44824114E-02 -2.24688894E-02
  8.33806842E-02  2.08604443E-02  4.72033984E-01 -1.44961338E-02  2.24707327E-02
 -8.33677235E-02  2.49669266E-02 -4.14811296E-02 -7.77870270E-01 -3.60546128E-01
  8.81207121E-05  2.64050645E-05  7.47509857E-01 -1.87043052E-04 -4.56052299E-05
  1.43209526E-02  5.79032095E-06  5.45741326E-03 -4.35835271E-02  2.22443326E-05
  1.35522299E-02 -1.43621800E+00  3.79535879E+00  3.25171963E-01 -8.27015731E-05
 -2.61386095E-05 -4.00564159E-01  1.06890614E-04  5.29550404E-05 -8.55319254E-02
 -2.16481509E-05 -1.09941776E-02  1.85976697E-01 -9.76178963E-05 -6.20982642E-03
 -1.15186194E+00 -1.48414907E-01  2.82965405E-02 -1.04835983E-01 -6.19662993E-03
 -1.15190334E+00 -1.48418932E-01 -2.82166587E-02  1.04856176E-01  6.03978229E-02
 -2.18512438E-01 -6.43475217E-01 -5.03479744E-01  1.28673845E-04  3.16128607E-05
  1.41639961E+00 -3.61253355E-04 -7.48039658E-05 -1.42662519E-02 -3.42265032E-06
 -2.95389909E-03  3.48741934E-02 -1.80156465E-05  3.79215502E-02  1.14069238E+00
 -5.81423604E-01  3.48819068E-01 -8.71457276E-05 -1.87001862E-05  5.51733371E-01
 -1.42336245E-04 -3.54370128E-05 -1.44612695E-01 -3.11460671E-05 -7.88297341E-03
  2.77601483E-01 -1.40554260E-04  1.76198834E-02  3.80711182E-01 -3.64109031E-02
 -1.79928317E-02  6.67938394E-02  1.76291362E-02  3.80711395E-01 -3.64132339E-02
  1.80097171E-02 -6.67937965E-02  6.10128898E-09 -3.37501448E-08 -1.59781714E-08
 -3.99810531E-08 -1.01020573E-05 -2.22350467E-05  1.29654118E-07  1.01754381E-05
  2.28500130E-05  1.76158525E-02  9.79339579E-06  3.49966769E-02  1.01705275E-02
 -3.31460939E-06  4.14695211E-10  1.92478601E-07 -2.20522984E-07  2.76731282E-08
 -1.77472102E-06  1.04479598E-06  4.64374412E-08 -1.56573933E-06 -7.45404863E-06
  2.87342901E-01  1.68033913E-04  5.70852057E-01  1.65897530E-01 -5.25013244E-05
  2.92649239E-06 -2.90429420E-06 -9.53010117E-05 -3.29338467E-01 -8.87573233E-02
 -2.95286559E-06  3.09412244E-06  9.53537379E-05  3.29335996E-01  8.87591466E-02
  1.84153245E-08 -2.48854988E-07 -1.61637878E-07 -2.45776267E-04 -9.10623263E-01
 -2.45417755E-01  3.14220892E-04  1.16104812E+00  3.12908432E-01 -5.53743207E-07
  5.16483043E-03 -3.21770440E-06  9.91252544E-06  1.91641406E-02  6.28859319E-08
  2.19818548E-06 -9.29639663E-07  9.93204657E-06  3.95460283E-02  1.06577906E-02
 -9.78122571E-05 -3.60509391E-01 -9.71587831E-02 -1.91358319E-06 -8.74445220E-03
 -9.80876670E-06 -1.69078013E-05 -3.24467016E-02 -2.78728124E-06  2.25564263E-06
 -2.78033603E-05 -1.10840016E-01 -2.98742670E-02 -2.75468892E-06  1.68275119E-06
 -2.78218344E-05 -1.10846919E-01 -2.98716415E-02 -3.28730613E-07  4.15079449E-06
 -1.93694150E-07  9.05780155E-06  2.10643193E-01 -7.81592334E-01 -1.67720053E-05
 -3.87791143E-01  1.43889948E+00 -4.30209137E-06  4.85936738E-02 -1.22703185E-05
 -3.99968034E-06 -1.30962695E-02  4.00182103E-07 -1.09477928E-05  2.45523116E-05
  2.62277484E-06 -5.72989972E-02  2.12607882E-01 -1.63481472E-06  3.38445765E-01
 -1.25580254E+00  3.20215612E-05 -4.00941410E-01  8.82990671E-05  3.58208258E-05
  1.08056067E-01  5.74214733E-03 -6.06150454E-01  6.06940738E-02  6.83157052E-03
 -2.53931924E-02 -5.74580776E-03  6.06132626E-01 -6.06844889E-02  6.85371160E-03
 -2.53866837E-02 -6.60508389E-08 -8.23036474E-07  1.15483664E-06 -5.36580300E-06
 -7.57124249E-03 -2.04037980E-03 -1.61234434E-04 -6.23240545E-01 -1.67967058E-01
  2.85513220E-06 -2.56587909E-02  9.76122989E-06 -4.98038146E-05 -9.52068341E-02
 -7.32234527E-07 -1.41739795E-05  4.13364235E-05  4.06596893E-06  1.27488150E-02
  3.43587314E-03  1.13522582E-04  4.90995978E-01  1.32326331E-01 -1.37175583E-05
  2.27635683E-01 -1.16764814E-04  4.46481066E-04  8.44641394E-01 -1.09150429E-05
 -1.17889411E-05 -7.03395984E-05 -2.79516155E-01 -7.53367765E-02 -1.09446825E-05
 -1.18503319E-05 -7.03724903E-05 -2.79510829E-01 -7.53241730E-02 -5.11645674E-03
 -1.15118573E-01  3.49370808E-01 -1.44478918E-01  5.04465703E-05 -1.15398352E-05
  1.42367330E-01 -4.40503099E-05  2.37533609E-05  8.56489496E-02 -9.74147865E-06
 -5.23626419E-02  3.18311004E-02 -1.48934757E-05 -3.50312323E-02 -5.35804400E-01
  1.26925346E+00 -6.28539088E-03 -1.12148929E-06  8.75701791E-06 -8.73364019E-01
  2.51351684E-04 -3.82883179E-05  6.59545868E-01 -4.77485945E-05 -4.47884121E-01
  3.98798614E-01 -2.58176482E-04 -6.73024077E-01 -2.56269647E-01  2.87450244E-01
  2.70207505E-03 -1.03023947E-02 -6.72944324E-01 -2.56220461E-01  2.87522698E-01
 -2.86286808E-03  1.03464316E-02 -6.88045957E-07 -5.79804007E-06  3.63336809E-05
 -2.59123824E-05 -5.99877103E-02  2.22584642E-01  1.76131225E-05  1.47235732E-01
 -5.46318105E-01  8.71591017E-06 -2.27743515E-02  1.90528955E-06  3.11428831E-06
  6.13782616E-03 -2.77333162E-06 -4.59176369E-05  1.04116157E-04 -9.31154904E-06
  2.88548216E-02 -1.07065565E-01 -8.73135424E-05 -3.69874799E-01  1.37241991E+00
  8.27689667E-05 -1.94481743E-01  1.34054750E-05  3.59837037E-05  5.24137392E-02
  4.75315689E-01  4.47980095E-01  4.69343558E-01  1.28749903E-01 -4.78238159E-01
 -4.75432011E-01 -4.48025544E-01 -4.69280545E-01  1.29004020E-01 -4.78158241E-01
 -3.23565065E-02  7.07448814E-01 -2.72440333E-01 -5.36119511E-01  1.38131302E-04
 -6.95675625E-06  4.68984688E-01 -1.17623846E-04 -1.58670061E-05 -6.03332522E-02
 -1.56668725E-05  2.70357900E-02  1.14702659E-02 -1.74145860E-06  5.40536095E-02
  6.84727978E-02  1.00375807E-01 -2.31089789E-01  4.88429026E-05  2.03989222E-05
 -4.11578010E-01  1.00332247E-04 -1.37186332E-05 -1.78004148E-01  1.57681548E-04
  2.30304671E-01 -4.84164885E-01  2.56311112E-04  3.35318832E-02 -9.40290829E-02
  4.64035299E-01  7.87317716E-02 -2.92481692E-01  3.36489995E-02 -9.40648565E-02
  4.63959154E-01 -7.89113499E-02  2.92453382E-01  3.43615089E-06 -3.25472566E-05
 -8.00913799E-05  7.38113893E-05  8.52877647E-02 -3.16459636E-01 -2.35954395E-05
 -1.44798541E-02  5.37273512E-02  1.63377538E-05 -1.90872450E-01  3.99102673E-05
  1.52739714E-05  5.14412563E-02 -4.83406541E-06 -2.67530953E-06  2.61468666E-05