eigen b3lyp/cc-pvdz (opt/freq)                                          
Freq      RB3LYP                                                      CC-pVDZ             
Number of atoms                            I               13
Info1-9                                    I   N=           9
          29          22        1002           0           0         100
           6          18        -502
Full Title                                 C   N=           3
eigen b3lyp/cc-pvdz (opt/freq)      
Route                                      C   N=           3
#p b3lyp/cc-pvdz opt freq           
Charge                                     I                1
Multiplicity                               I                1
Number of electrons                        I               40
Number of alpha electrons                  I               20
Number of beta electrons                   I               20
Number of basis functions                  I              101
Number of independent functions            I              101
Number of point charges in /Mol/           I                0
Number of translation vectors              I                0
Atomic numbers                             I   N=          13
           8           1           1           8           1           1
           8           1           1           1           8           1
           1
Nuclear charges                            R   N=          13
  8.00000000E+00  1.00000000E+00  1.00000000E+00  8.00000000E+00  1.00000000E+00
  1.00000000E+00  8.00000000E+00  1.00000000E+00  1.00000000E+00  1.00000000E+00
  8.00000000E+00  1.00000000E+00  1.00000000E+00
Current cartesian coordinates              R   N=          39
 -4.57284776E+00  6.82076950E-01  3.20466621E-01 -5.88184430E+00  8.17393460E-01
 -9.57684805E-01 -5.14539881E+00  1.72291470E+00  1.71690376E+00  2.87724227E+00
  3.61878313E+00  3.20339630E-01  3.64938057E+00  4.68466587E+00 -9.57609826E-01
  4.06472225E+00  3.59373265E+00  1.71693115E+00 -1.31179955E-04 -2.09370874E-06
 -1.06839293E+00 -1.80158403E+00  3.54774491E-01 -4.73124045E-01  1.20781297E+00
  1.38299864E+00 -4.73643077E-01  5.93629706E-01 -1.73762711E+00 -4.73567918E-01
  1.69577339E+00 -4.30083358E+00  3.20266918E-01  2.23110504E+00 -5.50313834E+00
 -9.57754266E-01  1.08188283E+00 -5.31590964E+00  1.71810709E+00
Number of symbols in /Mol/                 I                0
Force Field                                I                0
Atom Types                                 C   N=          13
                                                            
                                                            
                                    
Int Atom Types                             I   N=          13
           0           0           0           0           0           0
           0           0           0           0           0           0
           0
MM charges                                 R   N=          13
  0.00000000E+00  0.00000000E+00  0.00000000E+00  0.00000000E+00  0.00000000E+00
  0.00000000E+00  0.00000000E+00  0.00000000E+00  0.00000000E+00  0.00000000E+00
  0.00000000E+00  0.00000000E+00  0.00000000E+00
Integer atomic weights                     I   N=          13
          16           1           1          16           1           1
          16           1           1           1          16           1
           1
Real atomic weights                        R   N=          13
  1.59949146E+01  1.00782504E+00  1.00782504E+00  1.59949146E+01  1.00782504E+00
  1.00782504E+00  1.59949146E+01  1.00782504E+00  1.00782504E+00  1.00782504E+00
  1.59949146E+01  1.00782504E+00  1.00782504E+00
Atom fragment info                         I   N=          13
           0           0           0           0           0           0
           0           0           0           0           0           0
           0
Atom residue num                           I   N=          13
           0           0           0           0           0           0
           0           0           0           0           0           0
           0
Nuclear spins                              I   N=          13
           0           1           1           0           1           1
           0           1           1           1           0           1
           1
Nuclear ZEff                               R   N=          13
 -5.60000000E+00 -1.00000000E+00 -1.00000000E+00 -5.60000000E+00 -1.00000000E+00
 -1.00000000E+00 -5.60000000E+00 -1.00000000E+00 -1.00000000E+00 -1.00000000E+00
 -5.60000000E+00 -1.00000000E+00 -1.00000000E+00
Nuclear ZNuc                               R   N=          13
  8.00000000E+00  1.00000000E+00  1.00000000E+00  8.00000000E+00  1.00000000E+00
  1.00000000E+00  8.00000000E+00  1.00000000E+00  1.00000000E+00  1.00000000E+00
  8.00000000E+00  1.00000000E+00  1.00000000E+00
Nuclear QMom                               R   N=          13
  0.00000000E+00  0.00000000E+00  0.00000000E+00  0.00000000E+00  0.00000000E+00
  0.00000000E+00  0.00000000E+00  0.00000000E+00  0.00000000E+00  0.00000000E+00
  0.00000000E+00  0.00000000E+00  0.00000000E+00
Nuclear GFac                               R   N=          13
  0.00000000E+00  2.79284600E+00  2.79284600E+00  0.00000000E+00  2.79284600E+00
  2.79284600E+00  0.00000000E+00  2.79284600E+00  2.79284600E+00  2.79284600E+00
  0.00000000E+00  2.79284600E+00  2.79284600E+00
MicOpt                                     I   N=          13
          -1          -1          -1          -1          -1          -1
          -1          -1          -1          -1          -1          -1
          -1
Number of residues                         I                0
Number of secondary structures             I                0
Redundant internal dimensions              I   N=           4
          42          12          18          12
Redundant internal coordinate indices      I   N=         168
           1           2           0           0           1           3
           0           0           1           8           0           0
           4           5           0           0           4           6
           0           0           4           9           0           0
           7           8           0           0           7           9
           0           0           7          10           0           0
          10          11           0           0          11          12
           0           0          11          13           0           0
           2           1           3           0           2           1
           8           0           3           1           8           0
           5           4           6           0           5           4
           9           0           6           4           9           0
           8           7           9           0           8           7
          10           0           9           7          10           0
          10          11          12           0          10          11
          13           0          12          11          13           0
           1           8           7        -131           4           9
           7         -31           7          10          11         -61
           1           8           7        -132           4           9
           7         -32           7          10          11         -62
           2           1           7           9           2           1
           7          10           3           1           7           9
           3           1           7          10           5           4
           7           8           5           4           7          10
           6           4           7           8           6           4
           7          10           8           7          11          12
           8           7          11          13           9           7
          11          12           9           7          11          13
Redundant internal coordinates             R   N=          42
  1.83451725E+00  1.83335610E+00  2.90117489E+00  1.83451857E+00  1.83335870E+00
  2.90105757E+00  1.93014088E+00  1.93016774E+00  1.93020970E+00  2.90084847E+00
  1.83451761E+00  1.83335708E+00  1.84000793E+00  2.09361582E+00  2.17817031E+00
  1.84001574E+00  2.09361911E+00  2.17813281E+00  1.93624148E+00  1.93642227E+00
  1.93644986E+00  2.09361440E+00  2.17809930E+00  1.84004640E+00  3.09817269E+00
  3.09819095E+00  3.09800907E+00  3.06420965E+00  3.06482364E+00  3.21855732E+00
  2.11274554E+00 -1.99593249E+00 -3.69489443E-01  1.80501783E+00 -1.99632907E+00
  2.11254482E+00  1.80471506E+00 -3.69596363E-01  2.11166368E+00 -3.70614530E-01
 -1.99729516E+00  1.80361194E+00
ZRed-IntVec                                I   N=          42
           0           0           0           0           0           0
           0           0           0           0           0           0
           0           0           0           0           0           0
           0           0           0           0           0           0
           0           0           0           0           0           0
           0           0           0           0           0           0
           0           0           0           0           0           0
ZRed-FPVec                                 R   N=          42
  0.00000000E+00  0.00000000E+00  0.00000000E+00  0.00000000E+00  0.00000000E+00
  0.00000000E+00  0.00000000E+00  0.00000000E+00  0.00000000E+00  0.00000000E+00
  0.00000000E+00  0.00000000E+00  0.00000000E+00  0.00000000E+00  0.00000000E+00
  0.00000000E+00  0.00000000E+00  0.00000000E+00  0.00000000E+00  0.00000000E+00
  0.00000000E+00  0.00000000E+00  0.00000000E+00  0.00000000E+00  0.00000000E+00
  0.00000000E+00  0.00000000E+00  0.00000000E+00  0.00000000E+00  0.00000000E+00
  0.00000000E+00  0.00000000E+00  0.00000000E+00  0.00000000E+00  0.00000000E+00
  0.00000000E+00  0.00000000E+00  0.00000000E+00  0.00000000E+00  0.00000000E+00
  0.00000000E+00  0.00000000E+00
ZRed-Constraint1                           R   N=          42
  1.83451725E+00  1.83335610E+00  2.90117489E+00  1.83451857E+00  1.83335870E+00
  2.90105757E+00  1.93014088E+00  1.93016774E+00  1.93020970E+00  2.90084847E+00
  1.83451761E+00  1.83335708E+00  1.84000793E+00  2.09361582E+00  2.17817031E+00
  1.84001574E+00  2.09361911E+00  2.17813281E+00  1.93624148E+00  1.93642227E+00
  1.93644986E+00  2.09361440E+00  2.17809930E+00  1.84004640E+00  3.09817269E+00
  3.09819095E+00  3.09800907E+00  3.06420965E+00  3.06482364E+00  3.21855732E+00
  2.11274554E+00 -1.99593249E+00 -3.69489443E-01  1.80501783E+00 -1.99632907E+00
  2.11254482E+00  1.80471506E+00 -3.69596363E-01  2.11166368E+00 -3.70614530E-01
 -1.99729516E+00  1.80361194E+00
ZRed-Constraint2                           R   N=          42
  1.82629281E+00  1.82562640E+00  2.91841246E+00  1.82640533E+00  1.82559184E+00
  2.91633064E+00  1.91897895E+00  1.91951026E+00  1.91967132E+00  2.91597796E+00
  1.82645424E+00  1.82566355E+00  1.86759529E+00  2.13773739E+00  2.20689618E+00
  1.86791815E+00  2.13814276E+00  2.20563039E+00  1.99209219E+00  1.99235220E+00
  1.99213111E+00  2.13781325E+00  2.19975273E+00  1.86750326E+00  3.12507209E+00
  3.12424524E+00  3.12211664E+00  3.05553100E+00  3.05510440E+00  3.22708369E+00
  2.02768389E+00 -1.89219039E+00 -6.82681219E-01  1.68062981E+00 -1.89356426E+00
  2.02624627E+00  1.68033621E+00 -6.83038569E-01  2.01420946E+00 -6.76688897E-01
 -1.90668309E+00  1.68560386E+00
SymInf integers                            I   N=          26
           1           1           1           1           1           0
           0           0           0           0           0           0
           0           0           0           0           0           0
           0           0           0           0           0           0
           0           0
RotTr to input orientation                 R   N=          12
 -2.44557838E-01 -9.66798860E-01 -7.41041779E-02  9.69507207E-01 -2.45049852E-01
 -2.51900537E-03 -1.57238463E-02 -7.24605770E-02  9.97247324E-01  3.14357032E-02
  7.28341371E-02 -3.65367039E-02
Number of contracted shells                I               51
Number of primitive shells                 I              125
Pure/Cartesian d shells                    I                0
Pure/Cartesian f shells                    I                0
Highest angular momentum                   I                2
Largest degree of contraction              I                7
Shell types                                I   N=          51
           0           0           0           1           1          -2
           0           0           1           0           0           1
           0           0           0           1           1          -2
           0           0           1           0           0           1
           0           0           0           1           1          -2
           0           0           1           0           0           1
           0           0           1           0           0           0
           1           1          -2           0           0           1
           0           0           1
Number of primitives per shell             I   N=          51
           7           7           1           3           1           1
           3           1           1           3           1           1
           7           7           1           3           1           1
           3           1           1           3           1           1
           7           7           1           3           1           1
           3           1           1           3           1           1
           3           1           1           7           7           1
           3           1           1           3           1           1
           3           1           1
Shell to atom map                          I   N=          51
           1           1           1           1           1           1
           2           2           2           3           3           3
           4           4           4           4           4           4
           5           5           5           6           6           6
           7           7           7           7           7           7
           8           8           8           9           9           9
          10          10          10          11          11          11
          11          11          11          12          12          12
          13          13          13
Primitive exponents                        R   N=         125
  1.17200000E+04  1.75900000E+03  4.00800000E+02  1.13700000E+02  3.70300000E+01
  1.32700000E+01  5.02500000E+00  1.17200000E+04  4.00800000E+02  1.13700000E+02
  3.70300000E+01  1.32700000E+01  5.02500000E+00  1.01300000E+00  3.02300000E-01
  1.77000000E+01  3.85400000E+00  1.04600000E+00  2.75300000E-01  1.18500000E+00
  1.30100000E+01  1.96200000E+00  4.44600000E-01  1.22000000E-01  7.27000000E-01
  1.30100000E+01  1.96200000E+00  4.44600000E-01  1.22000000E-01  7.27000000E-01
  1.17200000E+04  1.75900000E+03  4.00800000E+02  1.13700000E+02  3.70300000E+01
  1.32700000E+01  5.02500000E+00  1.17200000E+04  4.00800000E+02  1.13700000E+02
  3.70300000E+01  1.32700000E+01  5.02500000E+00  1.01300000E+00  3.02300000E-01
  1.77000000E+01  3.85400000E+00  1.04600000E+00  2.75300000E-01  1.18500000E+00
  1.30100000E+01  1.96200000E+00  4.44600000E-01  1.22000000E-01  7.27000000E-01
  1.30100000E+01  1.96200000E+00  4.44600000E-01  1.22000000E-01  7.27000000E-01
  1.17200000E+04  1.75900000E+03  4.00800000E+02  1.13700000E+02  3.70300000E+01
  1.32700000E+01  5.02500000E+00  1.17200000E+04  4.00800000E+02  1.13700000E+02
  3.70300000E+01  1.32700000E+01  5.02500000E+00  1.01300000E+00  3.02300000E-01
  1.77000000E+01  3.85400000E+00  1.04600000E+00  2.75300000E-01  1.18500000E+00
  1.30100000E+01  1.96200000E+00  4.44600000E-01  1.22000000E-01  7.27000000E-01
  1.30100000E+01  1.96200000E+00  4.44600000E-01  1.22000000E-01  7.27000000E-01
  1.30100000E+01  1.96200000E+00  4.44600000E-01  1.22000000E-01  7.27000000E-01
  1.17200000E+04  1.75900000E+03  4.00800000E+02  1.13700000E+02  3.70300000E+01
  1.32700000E+01  5.02500000E+00  1.17200000E+04  4.00800000E+02  1.13700000E+02
  3.70300000E+01  1.32700000E+01  5.02500000E+00  1.01300000E+00  3.02300000E-01
  1.77000000E+01  3.85400000E+00  1.04600000E+00  2.75300000E-01  1.18500000E+00
  1.30100000E+01  1.96200000E+00  4.44600000E-01  1.22000000E-01  7.27000000E-01
  1.30100000E+01  1.96200000E+00  4.44600000E-01  1.22000000E-01  7.27000000E-01
Contraction coefficients                   R   N=         125
  7.11864434E-04  5.48520199E-03  2.79099296E-02  1.05133208E-01  2.84002490E-01
  4.51673946E-01  2.73208126E-01  7.69030046E-06  3.13484579E-04 -2.96614853E-03
 -1.08753543E-02 -1.20753817E-01 -1.06275264E-01  1.09597548E+00  1.00000000E+00
  6.26791663E-02  3.33536566E-01  7.41239642E-01  1.00000000E+00  1.00000000E+00
  3.34987264E-02  2.34800801E-01  8.13682958E-01  1.00000000E+00  1.00000000E+00
  3.34987264E-02  2.34800801E-01  8.13682958E-01  1.00000000E+00  1.00000000E+00
  7.11864434E-04  5.48520199E-03  2.79099296E-02  1.05133208E-01  2.84002490E-01
  4.51673946E-01  2.73208126E-01  7.69030046E-06  3.13484579E-04 -2.96614853E-03
 -1.08753543E-02 -1.20753817E-01 -1.06275264E-01  1.09597548E+00  1.00000000E+00
  6.26791663E-02  3.33536566E-01  7.41239642E-01  1.00000000E+00  1.00000000E+00
  3.34987264E-02  2.34800801E-01  8.13682958E-01  1.00000000E+00  1.00000000E+00
  3.34987264E-02  2.34800801E-01  8.13682958E-01  1.00000000E+00  1.00000000E+00
  7.11864434E-04  5.48520199E-03  2.79099296E-02  1.05133208E-01  2.84002490E-01
  4.51673946E-01  2.73208126E-01  7.69030046E-06  3.13484579E-04 -2.96614853E-03
 -1.08753543E-02 -1.20753817E-01 -1.06275264E-01  1.09597548E+00  1.00000000E+00
  6.26791663E-02  3.33536566E-01  7.41239642E-01  1.00000000E+00  1.00000000E+00
  3.34987264E-02  2.34800801E-01  8.13682958E-01  1.00000000E+00  1.00000000E+00
  3.34987264E-02  2.34800801E-01  8.13682958E-01  1.00000000E+00  1.00000000E+00
  3.34987264E-02  2.34800801E-01  8.13682958E-01  1.00000000E+00  1.00000000E+00
  7.11864434E-04  5.48520199E-03  2.79099296E-02  1.05133208E-01  2.84002490E-01
  4.51673946E-01  2.73208126E-01  7.69030046E-06  3.13484579E-04 -2.96614853E-03
 -1.08753543E-02 -1.20753817E-01 -1.06275264E-01  1.09597548E+00  1.00000000E+00
  6.26791663E-02  3.33536566E-01  7.41239642E-01  1.00000000E+00  1.00000000E+00
  3.34987264E-02  2.34800801E-01  8.13682958E-01  1.00000000E+00  1.00000000E+00
  3.34987264E-02  2.34800801E-01  8.13682958E-01  1.00000000E+00  1.00000000E+00
Coordinates of each shell                  R   N=         153
 -4.57284776E+00  6.82076950E-01  3.20466621E-01 -4.57284776E+00  6.82076950E-01
  3.20466621E-01 -4.57284776E+00  6.82076950E-01  3.20466621E-01 -4.57284776E+00
  6.82076950E-01  3.20466621E-01 -4.57284776E+00  6.82076950E-01  3.20466621E-01
 -4.57284776E+00  6.82076950E-01  3.20466621E-01 -5.88184430E+00  8.17393460E-01
 -9.57684805E-01 -5.88184430E+00  8.17393460E-01 -9.57684805E-01 -5.88184430E+00
  8.17393460E-01 -9.57684805E-01 -5.14539881E+00  1.72291470E+00  1.71690376E+00
 -5.14539881E+00  1.72291470E+00  1.71690376E+00 -5.14539881E+00  1.72291470E+00
  1.71690376E+00  2.87724227E+00  3.61878313E+00  3.20339630E-01  2.87724227E+00
  3.61878313E+00  3.20339630E-01  2.87724227E+00  3.61878313E+00  3.20339630E-01
  2.87724227E+00  3.61878313E+00  3.20339630E-01  2.87724227E+00  3.61878313E+00
  3.20339630E-01  2.87724227E+00  3.61878313E+00  3.20339630E-01  3.64938057E+00
  4.68466587E+00 -9.57609826E-01  3.64938057E+00  4.68466587E+00 -9.57609826E-01
  3.64938057E+00  4.68466587E+00 -9.57609826E-01  4.06472225E+00  3.59373265E+00
  1.71693115E+00  4.06472225E+00  3.59373265E+00  1.71693115E+00  4.06472225E+00
  3.59373265E+00  1.71693115E+00 -1.31179955E-04 -2.09370874E-06 -1.06839293E+00
 -1.31179955E-04 -2.09370874E-06 -1.06839293E+00 -1.31179955E-04 -2.09370874E-06
 -1.06839293E+00 -1.31179955E-04 -2.09370874E-06 -1.06839293E+00 -1.31179955E-04
 -2.09370874E-06 -1.06839293E+00 -1.31179955E-04 -2.09370874E-06 -1.06839293E+00
 -1.80158403E+00  3.54774491E-01 -4.73124045E-01 -1.80158403E+00  3.54774491E-01
 -4.73124045E-01 -1.80158403E+00  3.54774491E-01 -4.73124045E-01  1.20781297E+00
  1.38299864E+00 -4.73643077E-01  1.20781297E+00  1.38299864E+00 -4.73643077E-01
  1.20781297E+00  1.38299864E+00 -4.73643077E-01  5.93629706E-01 -1.73762711E+00
 -4.73567918E-01  5.93629706E-01 -1.73762711E+00 -4.73567918E-01  5.93629706E-01
 -1.73762711E+00 -4.73567918E-01  1.69577339E+00 -4.30083358E+00  3.20266918E-01
  1.69577339E+00 -4.30083358E+00  3.20266918E-01  1.69577339E+00 -4.30083358E+00
  3.20266918E-01  1.69577339E+00 -4.30083358E+00  3.20266918E-01  1.69577339E+00
 -4.30083358E+00  3.20266918E-01  1.69577339E+00 -4.30083358E+00  3.20266918E-01
  2.23110504E+00 -5.50313834E+00 -9.57754266E-01  2.23110504E+00 -5.50313834E+00
 -9.57754266E-01  2.23110504E+00 -5.50313834E+00 -9.57754266E-01  1.08188283E+00
 -5.31590964E+00  1.71810709E+00  1.08188283E+00 -5.31590964E+00  1.71810709E+00
  1.08188283E+00 -5.31590964E+00  1.71810709E+00
Num ILSW                                   I              100
ILSW                                       I   N=         100
           0           0           0           0           2           0
           0           0           0           0         402          -1
           5           0           0           0           2           0
           0           0           0           0           1           0
           1           0           0           0           0           0
           0           0      100000           0          -1           0
           0           0           0           0           0           0
           0           0           0           1           0           0
           0 -2000000000           1           0           0           0
           0           0           4          52           0           0
           0           0           5           0           0           0
           0           0           0          13           0           1
           0           0           0           0           0           0
           0           0           0           0           0           0
           0           0           0           0           0           0
           0           0           0           0           0           0
           0           0           0           0
Num RLSW                                   I               52
RLSW                                       R   N=          52
  8.00000000E-01  7.20000000E-01  1.00000000E+00  8.10000000E-01  2.00000000E-01
  0.00000000E+00  0.00000000E+00  1.00000000E+00  0.00000000E+00  0.00000000E+00
  0.00000000E+00  0.00000000E+00  1.00000000E+00  0.00000000E+00  0.00000000E+00
  0.00000000E+00  0.00000000E+00  1.00000000E+00  0.00000000E+00  0.00000000E+00
  0.00000000E+00  0.00000000E+00  1.00000000E+00  0.00000000E+00  0.00000000E+00
  0.00000000E+00  0.00000000E+00  1.00000000E+00  0.00000000E+00  0.00000000E+00
  0.00000000E+00  0.00000000E+00  1.00000000E+00  0.00000000E+00  0.00000000E+00
  0.00000000E+00  0.00000000E+00  0.00000000E+00  1.00000000E+00  1.00000000E+00
  0.00000000E+00  1.00000000E+00  0.00000000E+00  0.00000000E+00  0.00000000E+00
  0.00000000E+00  0.00000000E+00  0.00000000E+00  0.00000000E+00  0.00000000E+00
  0.00000000E+00  0.00000000E+00
MxBond                                     I                3
NBond                                      I   N=          13
           3           1           1           3           1           1
           3           2           2           2           3           1
           1
IBond                                      I   N=          39
           2           3           8           1           0           0
           1           0           0           5           6           9
           4           0           0           4           0           0
           8           9          10           1           7           0
           4           7           0           7          11           0
          10          12          13          11           0           0
          11           0           0
RBond                                      R   N=          39
  1.00000000E+00  1.00000000E+00  1.00000000E-01  1.00000000E+00  0.00000000E+00
  0.00000000E+00  1.00000000E+00  0.00000000E+00  0.00000000E+00  1.00000000E+00
  1.00000000E+00  1.00000000E-01  1.00000000E+00  0.00000000E+00  0.00000000E+00
  1.00000000E+00  0.00000000E+00  0.00000000E+00  1.00000000E+00  1.00000000E+00
  1.00000000E+00  1.00000000E-01  1.00000000E+00  0.00000000E+00  1.00000000E-01
  1.00000000E+00  0.00000000E+00  1.00000000E+00  1.00000000E-01  0.00000000E+00
  1.00000000E-01  1.00000000E+00  1.00000000E+00  1.00000000E+00  0.00000000E+00
  0.00000000E+00  1.00000000E+00  0.00000000E+00  0.00000000E+00
Virial Ratio                               R      2.005816091451230E+00
SCF Energy                                 R     -3.061187564001453E+02
Total Energy                               R     -3.061187564001453E+02
RMS Force                                  R      9.711037831816677E-06
RMS Density                                R      1.965639542654764E-09
NImag                                      I                0
Job Status                                 I                1
Nuclear derivative order                   I                2
External E-field                           R   N=          35
  0.00000000E+00  0.00000000E+00  0.00000000E+00  0.00000000E+00  0.00000000E+00
  0.00000000E+00  0.00000000E+00  0.00000000E+00  0.00000000E+00  0.00000000E+00
  0.00000000E+00  0.00000000E+00  0.00000000E+00  0.00000000E+00  0.00000000E+00
  0.00000000E+00  0.00000000E+00  0.00000000E+00  0.00000000E+00  0.00000000E+00
  0.00000000E+00  0.00000000E+00  0.00000000E+00  0.00000000E+00  0.00000000E+00
  0.00000000E+00  0.00000000E+00  0.00000000E+00  0.00000000E+00  0.00000000E+00
  0.00000000E+00  0.00000000E+00  0.00000000E+00  0.00000000E+00  0.00000000E+00
IOpCl                                      I                0
IROHF                                      I                0
Alpha Orbital Energies                     R   N=         101
 -1.93609843E+01 -1.93305947E+01 -1.93305782E+01 -1.93305670E+01 -1.24451603E+00
 -1.19497977E+00 -1.19496325E+00 -1.18895126E+00 -7.49187774E-01 -7.49163481E-01
 -7.08746153E-01 -7.08174985E-01 -7.08157586E-01 -6.13065549E-01 -5.70262248E-01
 -5.70250241E-01 -5.42513726E-01 -4.97192402E-01 -4.94782830E-01 -4.94766002E-01
 -1.30294967E-01 -1.06470818E-01 -1.06463801E-01 -3.15580979E-02 -2.96612039E-02
 -2.96538815E-02  3.62442178E-03  1.17346889E-01  1.17362061E-01  2.87429925E-01
  2.87452478E-01  3.34448484E-01  3.78056923E-01  3.78113435E-01  3.81927689E-01
  4.42508059E-01  4.42524627E-01  4.46611407E-01  6.50038202E-01  6.91269984E-01
  6.91276013E-01  7.12096066E-01  7.27024815E-01  7.27032451E-01  7.94386865E-01
  7.94404095E-01  7.99111907E-01  8.47245390E-01  9.18887352E-01  9.18888986E-01
  1.02396135E+00  1.02400081E+00  1.04816793E+00  1.05397489E+00  1.05399623E+00
  1.10108727E+00  1.21618061E+00  1.21624836E+00  1.23897918E+00  1.35027673E+00
  1.35625723E+00  1.35630127E+00  1.36514157E+00  1.42014487E+00  1.42016278E+00
  1.48421684E+00  1.50673222E+00  1.50678196E+00  1.55020616E+00  1.74763758E+00
  1.74764311E+00  1.89490598E+00  1.91208357E+00  1.91209022E+00  1.93983591E+00
  1.96093313E+00  1.96093913E+00  2.03244541E+00  2.14883182E+00  2.14889471E+00
  2.20969937E+00  2.74591780E+00  2.74592769E+00  2.75030889E+00  2.80321758E+00
  2.80325129E+00  2.81694998E+00  2.88167625E+00  2.88173335E+00  2.89672648E+00
  2.96167262E+00  2.96167308E+00  3.28286423E+00  3.28287330E+00  3.28528177E+00
  3.29318888E+00  3.51754788E+00  3.51758234E+00  3.53803018E+00  3.56750607E+00
  3.56753958E+00
Alpha MO coefficients                      R   N=       10201
  2.97714768E-04  3.90356204E-04 -7.32398872E-04  1.55979172E-04 -2.54132918E-05
 -3.01596385E-05 -1.14796203E-03  1.86805724E-04  2.20921005E-04  4.62595309E-05
  7.45652962E-05 -9.92609801E-06 -1.05477101E-04 -1.01456977E-06 -9.94292134E-05
 -2.85514384E-04  6.73943579E-05 -8.09547638E-06 -1.36814109E-04 -3.97258872E-05
 -3.04889813E-04  1.41781708E-04  4.73352289E-05  6.03952592E-05  2.97864893E-04
  3.90458991E-04 -7.32669842E-04 -1.00043565E-04 -1.22346290E-04 -3.02085993E-05
  7.36169333E-04  9.00603071E-04  2.21516851E-04  4.62523441E-05 -4.58581114E-05
 -5.96191545E-05  5.36088806E-05 -9.09091333E-05 -9.92187661E-05 -2.85538315E-04
 -4.07869368E-05 -5.43588316E-05 -1.36816367E-04 -3.99096495E-05 -3.05054580E-04
 -2.98603675E-05 -1.46432481E-04  6.04193764E-05  9.96444584E-01  2.29522271E-02
 -9.88342237E-03  1.33493195E-07  1.54125509E-07  1.15337525E-03 -3.52626404E-07
  3.63234907E-08 -8.90827576E-04 -2.65278567E-04 -1.38090293E-07  3.77432058E-08
 -6.24041046E-08 -2.43138813E-08  3.91699641E-04  1.69393587E-03 -1.01392992E-03
  1.57009305E-04  4.26459299E-04  3.91882956E-04  1.69450260E-03  6.43043612E-04
  7.99594164E-04  4.26362564E-04  3.91966373E-04  1.69491543E-03  3.71149646E-04
 -9.56590521E-04  4.26376033E-04  2.98005033E-04  3.90547679E-04 -7.33115540E-04
 -5.59663158E-05  1.47772306E-04 -3.02104880E-05  4.12174713E-04 -1.08773188E-03
  2.21505102E-04  4.62639620E-05 -2.86971431E-05  6.95134439E-05  5.19143041E-05
  9.19657214E-05 -9.91442968E-05 -2.85593482E-04 -2.68794143E-05  6.24249478E-05
 -1.36777125E-04 -3.97246714E-05 -3.05058251E-04 -1.11795090E-04  9.91511814E-05
  6.04306019E-05 -8.04587564E-02 -1.86513495E-03  8.40944444E-04  5.39243903E-05
 -9.99251593E-05  1.71409320E-05  2.29289254E-04  9.85891148E-05 -8.94375715E-05