zundel cation                                                           
Freq      RBLYP                                                       def2SVPP            
Number of atoms                            I                7
Info1-9                                    I   N=           9
          17          17        1002           0           0         100
           6          18         202
Full Title                                 C   N=           2
zundel cation           
Route                                      C   N=           3
#P blyp/Def2SVPP opt freq           
Charge                                     I                1
Multiplicity                               I                1
Number of electrons                        I               20
Number of alpha electrons                  I               10
Number of beta electrons                   I               10
Number of basis functions                  I               38
Number of independent functions            I               38
Number of point charges in /Mol/           I                0
Number of translation vectors              I                0
Atomic numbers                             I   N=           7
           8           1           1           1           8           1
           1
Nuclear charges                            R   N=           7
  8.00000000E+00  1.00000000E+00  1.00000000E+00  1.00000000E+00  8.00000000E+00
  1.00000000E+00  1.00000000E+00
Current cartesian coordinates              R   N=          21
  2.29864750E+00 -5.91500231E-02 -9.15283334E-02  3.21279337E+00 -9.27241177E-01
  1.28856603E+00  3.30309347E+00  1.37437802E+00 -7.43785494E-01  4.03399797E-04
  5.32035074E-02 -1.26532475E-04 -2.29883664E+00 -5.98081596E-02  9.15950191E-02
 -3.30216756E+00  1.37283051E+00  7.47571987E-01 -3.21260960E+00 -9.21505394E-01
 -1.29275948E+00
Number of symbols in /Mol/                 I                0
Force Field                                I                0
Atom Types                                 C   N=           7
                                                            
                        
Int Atom Types                             I   N=           7
           0           0           0           0           0           0
           0
MM charges                                 R   N=           7
  0.00000000E+00  0.00000000E+00  0.00000000E+00  0.00000000E+00  0.00000000E+00
  0.00000000E+00  0.00000000E+00
Integer atomic weights                     I   N=           7
          16           1           1           1          16           1
           1
Real atomic weights                        R   N=           7
  1.59949146E+01  1.00782504E+00  1.00782504E+00  1.00782504E+00  1.59949146E+01
  1.00782504E+00  1.00782504E+00
Atom fragment info                         I   N=           7
           0           0           0           0           0           0
           0
Atom residue num                           I   N=           7
           0           0           0           0           0           0
           0
Nuclear spins                              I   N=           7
           0           1           1           1           0           1
           1
Nuclear ZEff                               R   N=           7
 -5.60000000E+00 -1.00000000E+00 -1.00000000E+00 -1.00000000E+00 -5.60000000E+00
 -1.00000000E+00 -1.00000000E+00
Nuclear ZNuc                               R   N=           7
  8.00000000E+00  1.00000000E+00  1.00000000E+00  1.00000000E+00  8.00000000E+00
  1.00000000E+00  1.00000000E+00
Nuclear QMom                               R   N=           7
  0.00000000E+00  0.00000000E+00  0.00000000E+00  0.00000000E+00  0.00000000E+00
  0.00000000E+00  0.00000000E+00
Nuclear GFac                               R   N=           7
  0.00000000E+00  2.79284600E+00  2.79284600E+00  2.79284600E+00  0.00000000E+00
  2.79284600E+00  2.79284600E+00
MicOpt                                     I   N=           7
          -1          -1          -1          -1          -1          -1
          -1
Number of residues                         I                0
Number of secondary structures             I                0
Redundant internal dimensions              I   N=           4
          18           6           8           4
Redundant internal coordinate indices      I   N=          72
           1           2           0           0           1           3
           0           0           1           4           0           0
           4           5           0           0           5           6
           0           0           5           7           0           0
           2           1           3           0           2           1
           4           0           3           1           4           0
           4           5           6           0           4           5
           7           0           6           5           7           0
           1           4           5         -21           1           4
           5         -22           2           1           5           6
           2           1           5           7           3           1
           5           6           3           1           5           7
Redundant internal coordinates             R   N=          18
  1.86919913E+00  1.86798120E+00  2.30280341E+00  2.30384228E+00  1.86800221E+00
  1.86920853E+00  1.92969136E+00  2.07309613E+00  2.10955368E+00  2.10877500E+00
  2.07259928E+00  1.92949851E+00  3.08590963E+00  3.30968795E+00  1.71525905E+00
 -2.04588982E+00 -8.09152987E-01  1.71288345E+00
ZRed-IntVec                                I   N=          18
           0           0           0           0           0           0
           0           0           0           0           0           0
           0           0           0           0           0           0
ZRed-FPVec                                 R   N=          18
  0.00000000E+00  0.00000000E+00  0.00000000E+00  0.00000000E+00  0.00000000E+00
  0.00000000E+00  0.00000000E+00  0.00000000E+00  0.00000000E+00  0.00000000E+00
  0.00000000E+00  0.00000000E+00  0.00000000E+00  0.00000000E+00  0.00000000E+00
  0.00000000E+00  0.00000000E+00  0.00000000E+00
ZRed-Constraint1                           R   N=          18
  1.86919913E+00  1.86798120E+00  2.30280341E+00  2.30384228E+00  1.86800221E+00
  1.86920853E+00  1.92969136E+00  2.07309613E+00  2.10955368E+00  2.10877500E+00
  2.07259928E+00  1.92949851E+00  3.08590963E+00  3.30968795E+00  1.71525905E+00
 -2.04588982E+00 -8.09152987E-01  1.71288345E+00
ZRed-Constraint2                           R   N=          18
  1.82240656E+00  1.90078916E+00  2.26559542E+00  2.27134983E+00  1.90010150E+00
  1.82234533E+00  1.93053079E+00  2.01462967E+00  2.09377373E+00  2.09480511E+00
  2.01584755E+00  1.92979816E+00  3.09385056E+00  3.28356429E+00  1.83395329E+00
 -2.04301794E+00 -5.70449703E-01  1.83576438E+00
SymInf integers                            I   N=          26
           1           1           1           1           1           0
           0           0           0           0           0           0
           0           0           0           0           0           0
           0           0           0           0           0           0
           0           0
RotTr to input orientation                 R   N=          12
  5.99365826E-01  2.90350720E-01  7.45960499E-01  7.94914217E-01 -3.25548955E-01
 -5.11985612E-01  9.41912698E-02  8.99841285E-01 -4.25926833E-01 -4.36056564E-01
  5.96566537E-01 -2.77534479E+00
Number of contracted shells                I               22
Number of primitive shells                 I               44
Pure/Cartesian d shells                    I                0
Pure/Cartesian f shells                    I                0
Highest angular momentum                   I                2
Largest degree of contraction              I                5
Shell types                                I   N=          22
           0           0           0           1           1          -2
           0           0           0           0           0           0
           0           0           0           1           1          -2
           0           0           0           0
Number of primitives per shell             I   N=          22
           5           1           1           3           1           1
           3           1           3           1           3           1
           5           1           1           3           1           1
           3           1           3           1
Shell to atom map                          I   N=          22
           1           1           1           1           1           1
           2           2           3           3           4           4
           5           5           5           5           5           5
           6           6           7           7
Primitive exponents                        R   N=          44
  2.26617678E+03  3.40870102E+02  7.73631352E+01  2.14796449E+01  6.65894331E+00
  8.09759757E-01  2.55307722E-01  1.77215043E+01  3.86355054E+00  1.04809209E+00
  2.76415444E-01  1.20000000E+00  1.30107010E+01  1.96225720E+00  4.44537960E-01
  1.21949620E-01  1.30107010E+01  1.96225720E+00  4.44537960E-01  1.21949620E-01
  1.30107010E+01  1.96225720E+00  4.44537960E-01  1.21949620E-01  2.26617678E+03
  3.40870102E+02  7.73631352E+01  2.14796449E+01  6.65894331E+00  8.09759757E-01
  2.55307722E-01  1.77215043E+01  3.86355054E+00  1.04809209E+00  2.76415444E-01
  1.20000000E+00  1.30107010E+01  1.96225720E+00  4.44537960E-01  1.21949620E-01
  1.30107010E+01  1.96225720E+00  4.44537960E-01  1.21949620E-01
Contraction coefficients                   R   N=          44
 -5.38935039E-03 -4.02347214E-02 -1.80081842E-01 -4.68288577E-01 -4.46926172E-01
  1.00000000E+00  1.00000000E+00  6.26302488E-02  3.33311385E-01  7.41486383E-01
  1.00000000E+00  1.00000000E+00  3.34854848E-02  2.34721871E-01  8.13770285E-01
  1.00000000E+00  3.34854848E-02  2.34721871E-01  8.13770285E-01  1.00000000E+00
  3.34854848E-02  2.34721871E-01  8.13770285E-01  1.00000000E+00 -5.38935039E-03
 -4.02347214E-02 -1.80081842E-01 -4.68288577E-01 -4.46926172E-01  1.00000000E+00
  1.00000000E+00  6.26302488E-02  3.33311385E-01  7.41486383E-01  1.00000000E+00
  1.00000000E+00  3.34854848E-02  2.34721871E-01  8.13770285E-01  1.00000000E+00
  3.34854848E-02  2.34721871E-01  8.13770285E-01  1.00000000E+00
Coordinates of each shell                  R   N=          66
  2.29864750E+00 -5.91500231E-02 -9.15283334E-02  2.29864750E+00 -5.91500231E-02
 -9.15283334E-02  2.29864750E+00 -5.91500231E-02 -9.15283334E-02  2.29864750E+00
 -5.91500231E-02 -9.15283334E-02  2.29864750E+00 -5.91500231E-02 -9.15283334E-02
  2.29864750E+00 -5.91500231E-02 -9.15283334E-02  3.21279337E+00 -9.27241177E-01
  1.28856603E+00  3.21279337E+00 -9.27241177E-01  1.28856603E+00  3.30309347E+00
  1.37437802E+00 -7.43785494E-01  3.30309347E+00  1.37437802E+00 -7.43785494E-01
  4.03399797E-04  5.32035074E-02 -1.26532475E-04  4.03399797E-04  5.32035074E-02
 -1.26532475E-04 -2.29883664E+00 -5.98081596E-02  9.15950191E-02 -2.29883664E+00
 -5.98081596E-02  9.15950191E-02 -2.29883664E+00 -5.98081596E-02  9.15950191E-02
 -2.29883664E+00 -5.98081596E-02  9.15950191E-02 -2.29883664E+00 -5.98081596E-02
  9.15950191E-02 -2.29883664E+00 -5.98081596E-02  9.15950191E-02 -3.30216756E+00
  1.37283051E+00  7.47571987E-01 -3.30216756E+00  1.37283051E+00  7.47571987E-01
 -3.21260960E+00 -9.21505394E-01 -1.29275948E+00 -3.21260960E+00 -9.21505394E-01
 -1.29275948E+00
Num ILSW                                   I              100
ILSW                                       I   N=         100
           0           0           0           0           2           0
           0           0           0           0         402          -1
           5           0           0           0           2           0
           0           0           0           0           1           0
           1           0           0           0           0           0
           0           0      100000           0          -1           0
           0           0           0           0           0           0
           0           0           0           1           0           0
           0 -2000000000           1           0           0           0
           0           0           4          52           0           0
           0           0           0           0           0           0
           0           0           0           7           0           1
           0           0           0           0           0           0
           0           0           0           0           0           0
           0           0           0           0           0           0
           0           0           0           0           0           0
           0           0           0           0
Num RLSW                                   I               52
RLSW                                       R   N=          52
  1.00000000E+00  1.00000000E+00  1.00000000E+00  1.00000000E+00  0.00000000E+00
  0.00000000E+00  0.00000000E+00  1.00000000E+00  0.00000000E+00  0.00000000E+00
  0.00000000E+00  0.00000000E+00  1.00000000E+00  0.00000000E+00  0.00000000E+00
  0.00000000E+00  0.00000000E+00  1.00000000E+00  0.00000000E+00  0.00000000E+00
  0.00000000E+00  0.00000000E+00  1.00000000E+00  0.00000000E+00  0.00000000E+00
  0.00000000E+00  0.00000000E+00  1.00000000E+00  0.00000000E+00  0.00000000E+00
  0.00000000E+00  0.00000000E+00  1.00000000E+00  0.00000000E+00  0.00000000E+00
  0.00000000E+00  0.00000000E+00  0.00000000E+00  1.00000000E+00  1.00000000E+00
  0.00000000E+00  1.00000000E+00  0.00000000E+00  0.00000000E+00  0.00000000E+00
  0.00000000E+00  0.00000000E+00  0.00000000E+00  0.00000000E+00  0.00000000E+00
  0.00000000E+00  0.00000000E+00
ECP-MxAtEC                                 I           250000
ECP-MaxLECP                                I               10
ECP-MaxAtL                                 I          2250000
ECP-MxTECP                                 I         11250000
ECP-LenNCZ                                 I                0
ECP-KFirst                                 I   N=          70
           0           0           0           0           0           0
           0           0           0           0           0           0
           0           0           0           0           0           0
           0           0           0           0           0           0
           0           0           0           0           0           0
           0           0           0           0           0           0
           0           0           0           0           0           0
           0           0           0           0           0           0
           0           0           0           0           0           0
           0           0           0           0           0           0
           0           0           0           0           0           0
           0           0           0           0
ECP-KLast                                  I   N=          70
           0           0           0           0           0           0
           0           0           0           0           0           0
           0           0           0           0           0           0
           0           0           0           0           0           0
           0           0           0           0           0           0
           0           0           0           0           0           0
           0           0           0           0           0           0
           0           0           0           0           0           0
           0           0           0           0           0           0
           0           0           0           0           0           0
           0           0           0           0           0           0
           0           0           0           0
ECP-LMax                                   I   N=           7
           0           0           0           0           0           0
           0
ECP-LPSkip                                 I   N=           7
           1           1           1           1           1           1
           1
ECP-RNFroz                                 R   N=           7
  0.00000000E+00  0.00000000E+00  0.00000000E+00  0.00000000E+00  0.00000000E+00
  0.00000000E+00  0.00000000E+00
ECP-NLP                                    I                0
ECP-CLP1                                   R      0.000000000000000E+00
ECP-CLP2                                   R      0.000000000000000E+00
ECP-ZLP                                    R      0.000000000000000E+00
MxBond                                     I                3
NBond                                      I   N=           7
           3           1           1           2           3           1
           1
IBond                                      I   N=          21
           2           3           4           1           0           0
           1           0           0           1           5           0
           4           6           7           5           0           0
           5           0           0
RBond                                      R   N=          21
  1.00000000E+00  1.00000000E+00  1.00000000E-01  1.00000000E+00  0.00000000E+00
  0.00000000E+00  1.00000000E+00  0.00000000E+00  0.00000000E+00  1.00000000E-01
  1.00000000E-01  0.00000000E+00  1.00000000E-01  1.00000000E+00  1.00000000E+00
  1.00000000E+00  0.00000000E+00  0.00000000E+00  1.00000000E+00  0.00000000E+00
  0.00000000E+00
Virial Ratio                               R      2.006581972057607E+00
SCF Energy                                 R     -1.529885685119462E+02
Total Energy                               R     -1.529885685119462E+02
RMS Force                                  R      2.851684421469081E-05
RMS Density                                R      2.055524536381679E-10
NImag                                      I                0
Job Status                                 I                1
Nuclear derivative order                   I                2
External E-field                           R   N=          35
  0.00000000E+00  0.00000000E+00  0.00000000E+00  0.00000000E+00  0.00000000E+00
  0.00000000E+00  0.00000000E+00  0.00000000E+00  0.00000000E+00  0.00000000E+00
  0.00000000E+00  0.00000000E+00  0.00000000E+00  0.00000000E+00  0.00000000E+00
  0.00000000E+00  0.00000000E+00  0.00000000E+00  0.00000000E+00  0.00000000E+00
  0.00000000E+00  0.00000000E+00  0.00000000E+00  0.00000000E+00  0.00000000E+00
  0.00000000E+00  0.00000000E+00  0.00000000E+00  0.00000000E+00  0.00000000E+00
  0.00000000E+00  0.00000000E+00  0.00000000E+00  0.00000000E+00  0.00000000E+00
IOpCl                                      I                0
IROHF                                      I                0
Alpha Orbital Energies                     R   N=          38
 -1.90679070E+01 -1.90677836E+01 -1.19750342E+00 -1.17236689E+00 -7.65173912E-01
 -7.51210114E-01 -7.50892438E-01 -6.09940813E-01 -5.36143107E-01 -5.31140546E-01
 -2.24650984E-01 -1.88141487E-01 -1.30606527E-01 -1.28574830E-01 -4.91933149E-03
  1.86330367E-01  2.55403151E-01  2.67474595E-01  3.25554901E-01  3.27521126E-01
  5.73179108E-01  5.83053308E-01  7.35787859E-01  7.54598536E-01  8.09379382E-01
  8.23081186E-01  8.77784352E-01  1.18593254E+00  2.18728080E+00  2.19760024E+00
  2.19780295E+00  2.20014425E+00  2.22021252E+00  2.52217052E+00  2.52649317E+00
  2.64673790E+00  2.65177809E+00  2.75411612E+00
Alpha MO coefficients                      R   N=        1444
  9.37170515E-01 -3.96272192E-02  2.47739032E-02 -9.56896003E-05 -4.91047356E-04
 -5.40555483E-04 -1.91399448E-03  8.11503366E-04  8.01494125E-04 -1.57513446E-04
 -1.08174392E-05 -5.90969473E-05  2.50504352E-04 -1.53304463E-05 -5.28021060E-04
 -2.28761334E-03 -5.82881441E-04 -2.30061191E-03 -2.35189668E-03 -8.72048080E-03
  3.14596823E-01 -1.41054675E-02  1.11423651E-02 -1.47192168E-04 -1.80968958E-04
  1.59302128E-04  2.28370946E-03  4.12224507E-04 -2.24054132E-04 -1.22834487E-04
 -1.66511045E-05  4.46519431E-05  1.80058398E-04  1.02791318E-05 -4.85650758E-04
 -9.54774834E-06 -3.27792938E-04 -8.25222749E-05 -3.14738889E-01  1.23005031E-02
 -4.77273008E-03  2.56663812E-04  1.46082572E-04  2.09684640E-04 -1.41675789E-03
 -9.89729936E-05 -3.26822594E-04 -3.55199061E-05 -1.27026118E-05 -1.10109042E-05
  3.65982587E-05 -1.16576013E-06 -1.00072721E-05  1.62740015E-03 -1.67562151E-04
  1.72890122E-03 -1.17108964E-03 -4.33394164E-03  9.37218348E-01 -3.90205130E-02
  2.26329882E-02  2.30756400E-04 -4.83788997E-04  5.58075318E-04  6.70886829E-04
  7.13291920E-04 -8.37443452E-04 -1.03969836E-04 -9.62774422E-07  4.06743967E-05
  1.77825499E-04  1.14445979E-05 -3.64967986E-04 -2.87807444E-03 -4.15873269E-04
 -2.80686724E-03  2.01042134E-01  4.09128339E-01  2.19809106E-01  2.79813435E-02
  2.62344062E-02  3.15304820E-02  1.61808166E-02  9.10526124E-03  1.08058147E-02
 -2.06323046E-03  3.32696049E-03 -9.96083294E-03  1.34471358E-03  3.32351886E-03
  1.05107473E-01 -1.13447888E-02  1.05126040E-01 -1.08791459E-02  1.14747253E-01
  3.29456300E-02  2.00104803E-01  4.07241230E-01  2.18662723E-01 -2.77192306E-02
  2.63396471E-02 -3.14047534E-02 -1.61397629E-02  9.13289666E-03 -1.07565385E-02
 -1.97875537E-03  3.31173038E-03  9.90617467E-03  1.35063412E-03 -3.32797663E-03
  1.04626622E-01 -1.08356978E-02  1.04609175E-01 -1.12994964E-02 -2.03838312E-01
 -4.10115618E-01 -2.54150372E-01 -5.69305098E-02 -2.78420900E-02 -3.35857321E-02
 -6.17911589E-03 -1.09588391E-02 -1.24581872E-02  2.67502238E-03 -3.70603986E-03
  1.04360578E-02 -2.29579324E-03 -3.61989930E-03 -1.14605144E-01  9.42243922E-03
 -1.15304148E-01  9.34937529E-03  2.13136733E-04  9.47406828E-05  2.04738317E-01
  4.11940278E-01  2.55144272E-01 -5.70258409E-02  2.82083558E-02 -3.37542362E-02
 -6.23764041E-03  1.10921647E-02 -1.25190835E-02 -2.60811270E-03  3.72232504E-03
  1.04735303E-02  2.31950333E-03 -3.65842343E-03  1.15787001E-01 -9.40319029E-03
  1.15091387E-01 -9.47746450E-03 -4.81543848E-03 -8.23459304E-03 -2.12950388E-02
  3.49411489E-01  8.12602215E-02 -1.14634315E-02  1.76896572E-01  3.88621090E-02
 -5.74599587E-03 -8.36788944E-04  4.31822381E-03 -2.71723541E-03 -3.41284256E-03
  7.73413161E-03  7.24957554E-02  5.48821625E-03  1.57759828E-01  1.58257802E-02
 -3.16398738E-01 -5.99011182E-02 -4.72346859E-03 -8.05143525E-03 -2.10900501E-02
 -3.48631477E-01  8.05199641E-02  1.09942897E-02 -1.76470696E-01  3.85107787E-02
  5.51290459E-03 -7.96392807E-04  4.33206736E-03  2.72592000E-03 -3.39702583E-03
 -7.72312782E-03  1.56931169E-01  1.57297364E-02  7.28991056E-02  5.52754199E-03
  9.90956200E-04  1.89860929E-03  2.92007931E-03 -6.26081330E-02  3.24251505E-01
 -2.91585911E-01 -3.12346347E-02  1.62777920E-01 -1.39813934E-01 -1.15990265E-02
 -1.27238255E-02  2.84419741E-03 -5.28552236E-03  1.17334300E-02 -2.64234027E-01
 -3.30513137E-02  2.14853708E-01  2.85052082E-02  6.48774990E-02  1.78264856E-02
  7.34849228E-04  1.38228522E-03  2.49842187E-03  6.54271829E-02  2.20068494E-01
  1.97158372E-01  3.18733642E-02  1.13316892E-01  9.19842614E-02 -7.89826266E-03
 -9.23260724E-03 -2.13277856E-03 -3.54844701E-03 -7.32909329E-03  1.37184889E-01
  1.89048779E-02 -1.86239182E-01 -2.32925234E-02 -4.61198822E-04 -9.49320594E-04
 -4.96122026E-04 -1.93201357E-02 -2.22399713E-01  2.06058529E-01 -7.57988223E-03
 -1.03902971E-01  1.05869198E-01  8.07105860E-03  7.23795025E-03 -1.24802477E-03
  3.84362486E-03 -9.73497118E-03  1.64036054E-01  2.05773771E-02 -1.72391545E-01
 -2.10120407E-02  1.17817937E-02  3.26433460E-03  7.69373315E-04  1.53598704E-03
  1.45703098E-03  3.88640695E-03  3.24488016E-01  2.99344394E-01  3.84431653E-03
  1.55677379E-01  1.50104603E-01 -1.18017664E-02 -1.14041483E-02 -2.10054857E-03
 -5.55601512E-03 -1.33111717E-02  2.39341272E-01  3.00414351E-02 -2.48875689E-01
 -3.12278789E-02 -6.97388058E-02 -1.41060605E-01 -2.08719965E-01  4.04354704E-01
  8.80678881E-02  1.04438692E-01  2.73635849E-01  5.16442170E-02  7.07152925E-02
  4.72470169E-04  6.90648566E-03  5.54838023E-04 -4.46285667E-04  7.06562029E-03
  1.17787578E-01  3.52632731E-02  1.34046474E-01  3.31143408E-02  1.34767008E-04
  1.66422339E-04  6.98193573E-02  1.41211057E-01  2.08913781E-01  4.04890501E-01
 -8.88538829E-02  1.04543902E-01  2.73940179E-01 -5.21644507E-02  7.07508744E-02
 -4.77319256E-04 -6.92156294E-03  5.73996378E-04  4.59915702E-04  7.12054466E-03
 -1.34236964E-01 -3.31899856E-02 -1.18063498E-01 -3.53328681E-02 -3.35527495E-02
 -7.36553440E-02 -7.52969002E-02 -5.47716577E-02  2.90606100E-01  3.48300958E-01
 -4.43447034E-02  2.31097335E-01  2.50625575E-01  3.44421922E-03  4.59279804E-03
  7.69483468E-03 -3.45386677E-03  2.07486160E-03  5.00965405E-02  4.38401233E-03
  1.70083177E-02  1.76900400E-02  4.31912414E-02  7.14141640E-03 -3.34453628E-02
 -7.33774329E-02 -7.53105421E-02  5.26116772E-02  2.86738590E-01 -3.42017364E-01
  4.26962571E-02  2.28271587E-01 -2.45605988E-01  3.35030479E-03  4.56023706E-03
 -7.60705077E-03 -3.42086225E-03 -2.03457264E-03  1.67690975E-02  1.78263917E-02
  5.03913553E-02  4.30604976E-03 -8.63533522E-03 -2.19606270E-02  3.58707747E-04
 -1.69772806E-01  2.95582904E-01  3.07819798E-01 -1.30641999E-01  2.14564527E-01
  2.46647399E-01  3.69557594E-03  5.51827431E-04  7.47569302E-03 -4.69120397E-03
  2.44134919E-03 -1.64615966E-02  4.33316973E-03  1.46074410E-02 -8.12404220E-03
 -4.64738525E-04 -1.48914329E-04  9.32201792E-03  2.34681864E-02  1.21989618E-03
 -1.70992679E-01 -3.01327367E-01  3.12355221E-01 -1.31594661E-01 -2.19149777E-01
  2.49899291E-01 -3.71456139E-03 -6.00159662E-04  7.63552800E-03  4.78895352E-03
  2.46176586E-03 -1.50171262E-02  7.80189752E-03  1.55237900E-02 -4.44182963E-03
  1.10004758E-01  2.37715042E-01  6.66148137E-01  4.96770350E-02  5.99907446E-02
  6.19637506E-02  9.79416188E-02  6.53674240E-02  6.73431261E-02  1.35749063E-03
  1.53751936E-03  3.59654920E-04 -2.17921869E-03  1.34107345E-03 -1.53128730E-01
 -4.63099121E-01 -1.57579009E-01 -4.96014143E-01 -1.32604592E-01 -1.50352857E-01
  1.09854467E-01  2.37388353E-01  6.65131870E-01 -4.92278707E-02  6.03652265E-02
 -6.19256100E-02 -9.74444055E-02  6.57836471E-02 -6.72828192E-02  1.36278402E-03
  1.53373628E-03 -3.65921565E-04 -2.19321866E-03 -1.34708519E-03 -1.57259534E-01
 -4.95165807E-01 -1.52814224E-01 -4.62392190E-01 -8.06664855E-02 -1.63932692E-01
 -6.21003007E-01 -2.07051958E-01 -5.34935353E-02 -6.46989348E-02 -2.43635268E-01
 -5.82526955E-02 -7.53916613E-02  2.04853405E-03 -2.82266535E-03 -1.84080270E-03
 -4.05125426E-03 -2.52871680E-03  1.67366399E-01  5.33477573E-01  1.63572190E-01
  5.50400620E-01  1.93313868E-05 -2.48445234E-04  8.08083809E-02  1.64221488E-01
  6.22026998E-01 -2.07058008E-01  5.40757218E-02 -6.48333688E-02 -2.43656928E-01
  5.89231113E-02 -7.55391209E-02 -2.05666833E-03  2.82631303E-03 -1.85056972E-03
  4.04041872E-03 -2.55125359E-03 -1.63761931E-01 -5.51111197E-01 -1.67534989E-01
 -5.34179416E-01 -2.71298832E-03 -6.61967699E-03 -1.43506470E-02  3.08734305E-03
  2.35204511E-01 -1.99757571E-01  9.37662000E-03  3.24374972E-01 -2.80294271E-01
 -7.37157303E-04  2.58802435E-03  1.30967296E-04 -1.18010950E-03 -2.47103221E-03
  1.77132600E-01  7.98631383E-01 -1.67872865E-01 -7.76572523E-01 -2.79767645E-03
  2.37529917E-03 -2.71718204E-03 -6.63665249E-03 -1.43088665E-02 -2.77508427E-03
  2.28315737E-01  1.94819852E-01 -9.02716864E-03  3.14799054E-01  2.73545653E-01
 -7.08035935E-04  2.53023222E-03 -1.27513624E-04 -1.15980631E-03  2.37773680E-03
 -1.63131937E-01 -7.55189162E-01  1.72324370E-01  7.77086612E-01 -1.90626564E-04
 -7.25709407E-04  1.35456284E-03 -8.79242101E-03 -2.20733031E-01  2.06067939E-01
 -9.56631928E-03 -3.07273286E-01  2.80806702E-01  1.32736807E-03 -2.14814671E-03
  1.05835113E-04  8.25586468E-04  2.89967943E-03 -1.69841723E-01 -7.71426526E-01
  1.68363200E-01  7.66091522E-01 -1.01078195E-05  2.24031301E-05  1.19778537E-04
  5.50409699E-04 -1.70320708E-03 -8.83781439E-03  2.26412937E-01  2.12279002E-01
 -9.73737941E-03  3.15081778E-01  2.89533211E-01 -1.35394607E-03  2.22542887E-03
  1.11785408E-04 -8.54871834E-04  2.95178104E-03 -1.72884077E-01 -7.87336333E-01
  1.74603791E-01  7.93195232E-01 -5.93753558E-02 -1.44021850E-01 -3.10959274E-01
  3.82246585E-01 -1.94009250E-03  1.50553891E-02  5.44150614E-01  2.73022206E-02
  2.02529402E-02 -8.94364175E-03  2.32739079E-03  5.21309324E-03  1.71947853E-02
 -6.30053176E-04 -5.84803430E-02 -4.06484374E-01 -9.07033302E-02 -3.89300753E-01
  3.94237755E-01  1.88960132E+00 -5.93189507E-02 -1.43898657E-01 -3.10443362E-01
 -3.82219503E-01 -1.79989966E-03 -1.50288968E-02 -5.43979675E-01  2.74791524E-02
 -2.02850665E-02 -8.97291572E-03  2.32143870E-03 -5.22151654E-03  1.71724770E-02
  6.11599276E-04 -9.07853022E-02 -3.89227132E-01 -5.87170322E-02 -4.06355082E-01
  5.96132378E-02  2.31651053E-01 -3.53673902E-01 -1.49661130E-01  3.34828556E-02
  1.68053948E-02  1.11112266E-01  6.76453007E-02 -1.40484625E-02  3.32148167E-02
  3.51700971E-03  6.75231229E-03 -5.06865705E-02 -5.69286907E-03 -6.13698835E-02
 -1.61424720E-01 -2.66879542E-01  1.49100076E-02 -1.21307687E+00  1.65757264E+00
  5.95501613E-02  2.31577699E-01 -3.53930671E-01  1.49808653E-01  3.35459090E-02
 -1.67923622E-02 -1.11231980E-01  6.73809561E-02  1.41526183E-02  3.31406668E-02
  3.52603542E-03 -6.73309792E-03 -5.06676452E-02  5.64627017E-03 -2.65442120E-01
  1.37367347E-02 -6.09234035E-02 -1.61591206E-01 -1.01726641E-02 -2.68037214E-02
 -7.42497279E-02 -3.60611652E-02 -4.49231656E-02  1.84701909E-01 -4.30898915E-02
 -3.46251019E-01  1.73719844E-01 -1.33640471E-02 -2.94852093E-02 -1.12061252E-03
 -1.99333311E-02  4.74146169E-02 -5.92854798E-01  4.82145046E-01  8.07529602E-01